version 2
run BitTorrent-0-20141217-09:46:55-8228
attr configname BitTorrent
attr datetime 20141217-09:46:55
attr experiment BitTorrent
attr inifile omnetpp.ini
attr iterationvars ""
attr iterationvars2 $repetition=0
attr measurement ""
attr network oversim.underlay.inetunderlay.InetUnderlayNetwork
attr processid 8228
attr repetition 0
attr replication #0
attr resultdir results
attr runnumber 0
attr seedset 0

vector 218  InetUnderlayNetwork.inet.applications.BitTorrent.BTHostSeeder.tcp  tcpRcvQueueBytes  ETV
vector 206  InetUnderlayNetwork.inet.applications.BitTorrent.BTHostSeeder.tcp  "advertised window"  ETV
vector 205  InetUnderlayNetwork.inet.applications.BitTorrent.BTHostSeeder.tcp  "receive window"  ETV
vector 208  InetUnderlayNetwork.inet.applications.BitTorrent.BTHostSeeder.tcp  "sent ack"  ETV
vector 241  InetUnderlayNetwork.overlayTerminal[0].tcp  tcpRcvQueueBytes  ETV
vector 229  InetUnderlayNetwork.overlayTerminal[0].tcp  "advertised window"  ETV
vector 228  InetUnderlayNetwork.overlayTerminal[0].tcp  "receive window"  ETV
vector 231  InetUnderlayNetwork.overlayTerminal[0].tcp  "sent ack"  ETV
vector 140  InetUnderlayNetwork.inet.applications.BitTorrent.Tracker.tcp  "rcvd seq"  ETV
vector 141  InetUnderlayNetwork.inet.applications.BitTorrent.Tracker.tcp  "rcvd ack"  ETV
vector 137  InetUnderlayNetwork.inet.applications.BitTorrent.Tracker.tcp  "advertised window"  ETV
vector 135  InetUnderlayNetwork.inet.applications.BitTorrent.Tracker.tcp  "send window"  ETV
vector 149  InetUnderlayNetwork.inet.applications.BitTorrent.Tracker.tcp  tcpRcvQueueBytes  ETV
vector 136  InetUnderlayNetwork.inet.applications.BitTorrent.Tracker.tcp  "receive window"  ETV
vector 139  InetUnderlayNetwork.inet.applications.BitTorrent.Tracker.tcp  "sent ack"  ETV
vector 255  InetUnderlayNetwork.inet.applications.BitTorrent.Tracker.tcp  "rcvd seq"  ETV
vector 256  InetUnderlayNetwork.inet.applications.BitTorrent.Tracker.tcp  "rcvd ack"  ETV
vector 252  InetUnderlayNetwork.inet.applications.BitTorrent.Tracker.tcp  "advertised window"  ETV
vector 250  InetUnderlayNetwork.inet.applications.BitTorrent.Tracker.tcp  "send window"  ETV
vector 264  InetUnderlayNetwork.inet.applications.BitTorrent.Tracker.tcp  tcpRcvQueueBytes  ETV
vector 251  InetUnderlayNetwork.inet.applications.BitTorrent.Tracker.tcp  "receive window"  ETV
vector 254  InetUnderlayNetwork.inet.applications.BitTorrent.Tracker.tcp  "sent ack"  ETV
vector 209  InetUnderlayNetwork.inet.applications.BitTorrent.BTHostSeeder.tcp  "rcvd seq"  ETV
vector 210  InetUnderlayNetwork.inet.applications.BitTorrent.BTHostSeeder.tcp  "rcvd ack"  ETV
vector 204  InetUnderlayNetwork.inet.applications.BitTorrent.BTHostSeeder.tcp  "send window"  ETV
vector 207  InetUnderlayNetwork.inet.applications.BitTorrent.BTHostSeeder.tcp  "sent seq"  ETV
vector 211  InetUnderlayNetwork.inet.applications.BitTorrent.BTHostSeeder.tcp  "unacked bytes"  ETV
vector 129  InetUnderlayNetwork.inet.applications.BitTorrent.BTHostSeeder.ppp[0].queue  "queue length"  ETV
vector 142  InetUnderlayNetwork.inet.applications.BitTorrent.Tracker.tcp  "unacked bytes"  ETV
vector 143  InetUnderlayNetwork.inet.applications.BitTorrent.Tracker.tcp  "rcvd dupAcks"  ETV
vector 138  InetUnderlayNetwork.inet.applications.BitTorrent.Tracker.tcp  "sent seq"  ETV
vector 125  InetUnderlayNetwork.inet.applications.BitTorrent.Tracker.ppp[0].queue  "queue length"  ETV
vector 232  InetUnderlayNetwork.overlayTerminal[0].tcp  "rcvd seq"  ETV
vector 233  InetUnderlayNetwork.overlayTerminal[0].tcp  "rcvd ack"  ETV
vector 227  InetUnderlayNetwork.overlayTerminal[0].tcp  "send window"  ETV
vector 230  InetUnderlayNetwork.overlayTerminal[0].tcp  "sent seq"  ETV
vector 234  InetUnderlayNetwork.overlayTerminal[0].tcp  "unacked bytes"  ETV
vector 133  InetUnderlayNetwork.overlayTerminal[0].ppp[0].queue  "queue length"  ETV
vector 222  InetUnderlayNetwork.inet.applications.BitTorrent.BTHostSeeder.tcp  "measured RTT"  ETV
vector 223  InetUnderlayNetwork.inet.applications.BitTorrent.BTHostSeeder.tcp  "smoothed RTT"  ETV
vector 224  InetUnderlayNetwork.inet.applications.BitTorrent.BTHostSeeder.tcp  RTTVAR  ETV
vector 225  InetUnderlayNetwork.inet.applications.BitTorrent.BTHostSeeder.tcp  RTO  ETV
vector 220  InetUnderlayNetwork.inet.applications.BitTorrent.BTHostSeeder.tcp  cwnd  ETV
vector 212  InetUnderlayNetwork.inet.applications.BitTorrent.BTHostSeeder.tcp  "rcvd dupAcks"  ETV
vector 153  InetUnderlayNetwork.inet.applications.BitTorrent.Tracker.tcp  "measured RTT"  ETV
vector 154  InetUnderlayNetwork.inet.applications.BitTorrent.Tracker.tcp  "smoothed RTT"  ETV
vector 155  InetUnderlayNetwork.inet.applications.BitTorrent.Tracker.tcp  RTTVAR  ETV
vector 156  InetUnderlayNetwork.inet.applications.BitTorrent.Tracker.tcp  RTO  ETV
vector 151  InetUnderlayNetwork.inet.applications.BitTorrent.Tracker.tcp  cwnd  ETV
vector 257  InetUnderlayNetwork.inet.applications.BitTorrent.Tracker.tcp  "unacked bytes"  ETV
vector 258  InetUnderlayNetwork.inet.applications.BitTorrent.Tracker.tcp  "rcvd dupAcks"  ETV
vector 253  InetUnderlayNetwork.inet.applications.BitTorrent.Tracker.tcp  "sent seq"  ETV
vector 131  InetUnderlayNetwork.accessRouter[4].ppp[1].queue  "queue length"  ETV
151	346	224.057829735	1072
151	534	224.104055557	1608
153	346	224.057829735	0.046362883
154	346	224.057829735	0.00579536
155	346	224.057829735	0.662045361
156	346	224.057829735	2.653976804
135	52	223.965147232	7504
135	191	224.011304263	7504
135	346	224.057829735	7504
135	534	224.104055557	7504
136	52	223.965147232	7504
136	195	224.011466852	7504
136	198	224.011466852	7504
136	349	224.057867335	7504
136	352	224.057867335	7504
137	52	223.965147232	55993021
137	52	223.965147232	55993021
137	195	224.011466852	55993099
137	198	224.011466852	55993099
137	349	224.057867335	55993100
137	352	224.057867335	55993100
138	198	224.011466852	55991287
139	52	223.965147232	55985517
139	195	224.011466852	55985595
139	198	224.011466852	55985595
139	349	224.057867335	55985596
139	352	224.057867335	55985596
140	52	223.965147232	55985516
140	191	224.011304263	55985517
140	195	224.011466852	55985517
140	346	224.057829735	55985595
140	349	224.057867335	55985595
140	534	224.104055557	55985596
141	52	223.965147232	0
141	191	224.011304263	55991287
141	195	224.011466852	55991287
141	346	224.057829735	55991396
141	349	224.057867335	55991396
141	534	224.104055557	55991397
142	191	224.011304263	0
142	198	224.011466852	109
142	346	224.057829735	0
142	352	224.057867335	1
142	534	224.104055557	0
143	195	224.011466852	0
143	346	224.057829735	0
143	349	224.057867335	0
143	534	224.104055557	0
149	52	223.965147232	0
149	195	224.011466852	0
149	195	224.011466852	0
149	198	224.011466852	0
149	349	224.057867335	0
149	352	224.057867335	0
vector 245  InetUnderlayNetwork.overlayTerminal[0].tcp  "measured RTT"  ETV
vector 246  InetUnderlayNetwork.overlayTerminal[0].tcp  "smoothed RTT"  ETV
vector 247  InetUnderlayNetwork.overlayTerminal[0].tcp  RTTVAR  ETV
vector 248  InetUnderlayNetwork.overlayTerminal[0].tcp  RTO  ETV
vector 243  InetUnderlayNetwork.overlayTerminal[0].tcp  cwnd  ETV
vector 235  InetUnderlayNetwork.overlayTerminal[0].tcp  "rcvd dupAcks"  ETV
vector 310  InetUnderlayNetwork.overlayTerminal[0].tcp  tcpRcvQueueBytes  ETV
vector 298  InetUnderlayNetwork.overlayTerminal[0].tcp  "advertised window"  ETV
vector 297  InetUnderlayNetwork.overlayTerminal[0].tcp  "receive window"  ETV
vector 300  InetUnderlayNetwork.overlayTerminal[0].tcp  "sent ack"  ETV
vector 268  InetUnderlayNetwork.inet.applications.BitTorrent.Tracker.tcp  "measured RTT"  ETV
vector 269  InetUnderlayNetwork.inet.applications.BitTorrent.Tracker.tcp  "smoothed RTT"  ETV
vector 270  InetUnderlayNetwork.inet.applications.BitTorrent.Tracker.tcp  RTTVAR  ETV
vector 271  InetUnderlayNetwork.inet.applications.BitTorrent.Tracker.tcp  RTO  ETV
vector 266  InetUnderlayNetwork.inet.applications.BitTorrent.Tracker.tcp  cwnd  ETV
vector 163  InetUnderlayNetwork.inet.applications.BitTorrent.BTHostSeeder.tcp  "rcvd seq"  ETV
vector 164  InetUnderlayNetwork.inet.applications.BitTorrent.BTHostSeeder.tcp  "rcvd ack"  ETV
vector 160  InetUnderlayNetwork.inet.applications.BitTorrent.BTHostSeeder.tcp  "advertised window"  ETV
vector 158  InetUnderlayNetwork.inet.applications.BitTorrent.BTHostSeeder.tcp  "send window"  ETV
vector 172  InetUnderlayNetwork.inet.applications.BitTorrent.BTHostSeeder.tcp  tcpRcvQueueBytes  ETV
vector 159  InetUnderlayNetwork.inet.applications.BitTorrent.BTHostSeeder.tcp  "receive window"  ETV
vector 162  InetUnderlayNetwork.inet.applications.BitTorrent.BTHostSeeder.tcp  "sent ack"  ETV
vector 301  InetUnderlayNetwork.overlayTerminal[0].tcp  "rcvd seq"  ETV
vector 302  InetUnderlayNetwork.overlayTerminal[0].tcp  "rcvd ack"  ETV
vector 296  InetUnderlayNetwork.overlayTerminal[0].tcp  "send window"  ETV
vector 299  InetUnderlayNetwork.overlayTerminal[0].tcp  "sent seq"  ETV
vector 303  InetUnderlayNetwork.overlayTerminal[0].tcp  "unacked bytes"  ETV
266	627	224.15732282	1072
266	807	224.242902168	1608
268	627	224.15732282	0.086883348
269	627	224.15732282	0.010860418
270	627	224.15732282	0.667110419
271	627	224.15732282	2.679302094
250	102	223.984514392	7504
250	418	224.069376946	7504
250	627	224.15732282	7504
250	807	224.242902168	7504
251	102	223.984514392	7504
251	434	224.070439472	7504
251	437	224.070439472	7504
251	630	224.15769882	7504
251	633	224.15769882	7504
252	102	223.984514392	55993021
252	102	223.984514392	55993021
252	434	224.070439472	55993099
252	437	224.070439472	55993099
252	630	224.15769882	55993100
252	633	224.15769882	55993100
253	437	224.070439472	55996129
254	102	223.984514392	55985517
254	434	224.070439472	55985595
254	437	224.070439472	55985595
254	630	224.15769882	55985596
254	633	224.15769882	55985596
255	102	223.984514392	55985516
255	418	224.069376946	55985517
255	434	224.070439472	55985517
255	627	224.15732282	55985595
255	630	224.15769882	55985595
255	807	224.242902168	55985596
256	102	223.984514392	0
256	418	224.069376946	55996129
256	434	224.070439472	55996129
256	627	224.15732282	55996339
256	630	224.15769882	55996339
256	807	224.242902168	55996340
257	418	224.069376946	0
257	437	224.070439472	210
257	627	224.15732282	0
257	633	224.15769882	1
257	807	224.242902168	0
258	434	224.070439472	0
258	627	224.15732282	0
258	630	224.15769882	0
258	807	224.242902168	0
264	102	223.984514392	0
264	434	224.070439472	0
264	434	224.070439472	0
264	437	224.070439472	0
264	630	224.15769882	0
264	633	224.15769882	0
vector 165  InetUnderlayNetwork.inet.applications.BitTorrent.BTHostSeeder.tcp  "unacked bytes"  ETV
vector 166  InetUnderlayNetwork.inet.applications.BitTorrent.BTHostSeeder.tcp  "rcvd dupAcks"  ETV
vector 161  InetUnderlayNetwork.inet.applications.BitTorrent.BTHostSeeder.tcp  "sent seq"  ETV
vector 314  InetUnderlayNetwork.overlayTerminal[0].tcp  "measured RTT"  ETV
vector 315  InetUnderlayNetwork.overlayTerminal[0].tcp  "smoothed RTT"  ETV
vector 316  InetUnderlayNetwork.overlayTerminal[0].tcp  RTTVAR  ETV
vector 317  InetUnderlayNetwork.overlayTerminal[0].tcp  RTO  ETV
vector 312  InetUnderlayNetwork.overlayTerminal[0].tcp  cwnd  ETV
vector 304  InetUnderlayNetwork.overlayTerminal[0].tcp  "rcvd dupAcks"  ETV
vector 176  InetUnderlayNetwork.inet.applications.BitTorrent.BTHostSeeder.tcp  "measured RTT"  ETV
vector 177  InetUnderlayNetwork.inet.applications.BitTorrent.BTHostSeeder.tcp  "smoothed RTT"  ETV
vector 178  InetUnderlayNetwork.inet.applications.BitTorrent.BTHostSeeder.tcp  RTTVAR  ETV
vector 179  InetUnderlayNetwork.inet.applications.BitTorrent.BTHostSeeder.tcp  RTO  ETV
vector 174  InetUnderlayNetwork.inet.applications.BitTorrent.BTHostSeeder.tcp  cwnd  ETV
vector 383  InetUnderlayNetwork.overlayTerminal[1].tcp  tcpRcvQueueBytes  ETV
vector 371  InetUnderlayNetwork.overlayTerminal[1].tcp  "advertised window"  ETV
vector 370  InetUnderlayNetwork.overlayTerminal[1].tcp  "receive window"  ETV
vector 373  InetUnderlayNetwork.overlayTerminal[1].tcp  "sent ack"  ETV
vector 278  InetUnderlayNetwork.inet.applications.BitTorrent.Tracker.tcp  "rcvd seq"  ETV
vector 279  InetUnderlayNetwork.inet.applications.BitTorrent.Tracker.tcp  "rcvd ack"  ETV
vector 275  InetUnderlayNetwork.inet.applications.BitTorrent.Tracker.tcp  "advertised window"  ETV
vector 273  InetUnderlayNetwork.inet.applications.BitTorrent.Tracker.tcp  "send window"  ETV
vector 287  InetUnderlayNetwork.inet.applications.BitTorrent.Tracker.tcp  tcpRcvQueueBytes  ETV
vector 274  InetUnderlayNetwork.inet.applications.BitTorrent.Tracker.tcp  "receive window"  ETV
vector 277  InetUnderlayNetwork.inet.applications.BitTorrent.Tracker.tcp  "sent ack"  ETV
vector 374  InetUnderlayNetwork.overlayTerminal[1].tcp  "rcvd seq"  ETV
vector 375  InetUnderlayNetwork.overlayTerminal[1].tcp  "rcvd ack"  ETV
vector 369  InetUnderlayNetwork.overlayTerminal[1].tcp  "send window"  ETV
vector 372  InetUnderlayNetwork.overlayTerminal[1].tcp  "sent seq"  ETV
vector 376  InetUnderlayNetwork.overlayTerminal[1].tcp  "unacked bytes"  ETV
vector 344  InetUnderlayNetwork.overlayTerminal[1].ppp[0].queue  "queue length"  ETV
vector 280  InetUnderlayNetwork.inet.applications.BitTorrent.Tracker.tcp  "unacked bytes"  ETV
vector 281  InetUnderlayNetwork.inet.applications.BitTorrent.Tracker.tcp  "rcvd dupAcks"  ETV
vector 276  InetUnderlayNetwork.inet.applications.BitTorrent.Tracker.tcp  "sent seq"  ETV
vector 387  InetUnderlayNetwork.overlayTerminal[1].tcp  "measured RTT"  ETV
vector 388  InetUnderlayNetwork.overlayTerminal[1].tcp  "smoothed RTT"  ETV
vector 389  InetUnderlayNetwork.overlayTerminal[1].tcp  RTTVAR  ETV
vector 390  InetUnderlayNetwork.overlayTerminal[1].tcp  RTO  ETV
vector 385  InetUnderlayNetwork.overlayTerminal[1].tcp  cwnd  ETV
vector 377  InetUnderlayNetwork.overlayTerminal[1].tcp  "rcvd dupAcks"  ETV
vector 429  InetUnderlayNetwork.overlayTerminal[1].tcp  tcpRcvQueueBytes  ETV
vector 417  InetUnderlayNetwork.overlayTerminal[1].tcp  "advertised window"  ETV
vector 416  InetUnderlayNetwork.overlayTerminal[1].tcp  "receive window"  ETV
vector 419  InetUnderlayNetwork.overlayTerminal[1].tcp  "sent ack"  ETV
vector 452  InetUnderlayNetwork.overlayTerminal[1].tcp  tcpRcvQueueBytes  ETV
vector 440  InetUnderlayNetwork.overlayTerminal[1].tcp  "advertised window"  ETV
vector 439  InetUnderlayNetwork.overlayTerminal[1].tcp  "receive window"  ETV
vector 442  InetUnderlayNetwork.overlayTerminal[1].tcp  "sent ack"  ETV
vector 291  InetUnderlayNetwork.inet.applications.BitTorrent.Tracker.tcp  "measured RTT"  ETV
vector 292  InetUnderlayNetwork.inet.applications.BitTorrent.Tracker.tcp  "smoothed RTT"  ETV
vector 293  InetUnderlayNetwork.inet.applications.BitTorrent.Tracker.tcp  RTTVAR  ETV
vector 294  InetUnderlayNetwork.inet.applications.BitTorrent.Tracker.tcp  RTO  ETV
vector 289  InetUnderlayNetwork.inet.applications.BitTorrent.Tracker.tcp  cwnd  ETV
vector 324  InetUnderlayNetwork.inet.applications.BitTorrent.BTHostSeeder.tcp  "rcvd seq"  ETV
vector 325  InetUnderlayNetwork.inet.applications.BitTorrent.BTHostSeeder.tcp  "rcvd ack"  ETV
vector 321  InetUnderlayNetwork.inet.applications.BitTorrent.BTHostSeeder.tcp  "advertised window"  ETV
vector 319  InetUnderlayNetwork.inet.applications.BitTorrent.BTHostSeeder.tcp  "send window"  ETV
vector 333  InetUnderlayNetwork.inet.applications.BitTorrent.BTHostSeeder.tcp  tcpRcvQueueBytes  ETV
vector 320  InetUnderlayNetwork.inet.applications.BitTorrent.BTHostSeeder.tcp  "receive window"  ETV
vector 323  InetUnderlayNetwork.inet.applications.BitTorrent.BTHostSeeder.tcp  "sent ack"  ETV
vector 186  InetUnderlayNetwork.overlayTerminal[0].tcp  "rcvd seq"  ETV
vector 187  InetUnderlayNetwork.overlayTerminal[0].tcp  "rcvd ack"  ETV
vector 183  InetUnderlayNetwork.overlayTerminal[0].tcp  "advertised window"  ETV
vector 181  InetUnderlayNetwork.overlayTerminal[0].tcp  "send window"  ETV
vector 195  InetUnderlayNetwork.overlayTerminal[0].tcp  tcpRcvQueueBytes  ETV
vector 182  InetUnderlayNetwork.overlayTerminal[0].tcp  "receive window"  ETV
vector 185  InetUnderlayNetwork.overlayTerminal[0].tcp  "sent ack"  ETV
vector 443  InetUnderlayNetwork.overlayTerminal[1].tcp  "rcvd seq"  ETV
vector 444  InetUnderlayNetwork.overlayTerminal[1].tcp  "rcvd ack"  ETV
vector 438  InetUnderlayNetwork.overlayTerminal[1].tcp  "send window"  ETV
vector 441  InetUnderlayNetwork.overlayTerminal[1].tcp  "sent seq"  ETV
vector 445  InetUnderlayNetwork.overlayTerminal[1].tcp  "unacked bytes"  ETV
289	1348	283.123320156	1072
289	1536	283.167545904	1608
291	1348	283.123320156	0.04464941
292	1348	283.123320156	0.005581176
293	1348	283.123320156	0.661831177
294	1348	283.123320156	2.652905884
273	1101	283.034351266	7504
273	1178	283.07850822	7504
273	1348	283.123320156	7504
273	1536	283.167545904	7504
274	1101	283.034351266	7504
274	1182	283.078670746	7504
274	1185	283.078670746	7504
274	1351	283.123357756	7504
274	1354	283.123357756	7504
275	1101	283.034351266	70760572
275	1101	283.034351266	70760572
275	1182	283.078670746	70760650
275	1185	283.078670746	70760650
275	1351	283.123357756	70760651
275	1354	283.123357756	70760651
276	1185	283.078670746	70758588
277	1101	283.034351266	70753068
277	1182	283.078670746	70753146
277	1185	283.078670746	70753146
277	1351	283.123357756	70753147
277	1354	283.123357756	70753147
278	1101	283.034351266	70753067
278	1178	283.07850822	70753068
278	1182	283.078670746	70753068
278	1348	283.123320156	70753146
278	1351	283.123357756	70753146
278	1536	283.167545904	70753147
279	1101	283.034351266	0
279	1178	283.07850822	70758588
279	1182	283.078670746	70758588
279	1348	283.123320156	70758876
279	1351	283.123357756	70758876
279	1536	283.167545904	70758877
280	1178	283.07850822	0
280	1185	283.078670746	288
280	1348	283.123320156	0
280	1354	283.123357756	1
280	1536	283.167545904	0
281	1182	283.078670746	0
281	1348	283.123320156	0
281	1351	283.123357756	0
281	1536	283.167545904	0
287	1101	283.034351266	0
287	1182	283.078670746	0
287	1182	283.078670746	0
287	1185	283.078670746	0
287	1351	283.123357756	0
287	1354	283.123357756	0
vector 326  InetUnderlayNetwork.inet.applications.BitTorrent.BTHostSeeder.tcp  "unacked bytes"  ETV
vector 327  InetUnderlayNetwork.inet.applications.BitTorrent.BTHostSeeder.tcp  "rcvd dupAcks"  ETV
vector 322  InetUnderlayNetwork.inet.applications.BitTorrent.BTHostSeeder.tcp  "sent seq"  ETV
vector 342  InetUnderlayNetwork.accessRouter[5].ppp[1].queue  "queue length"  ETV
vector 420  InetUnderlayNetwork.overlayTerminal[1].tcp  "rcvd seq"  ETV
vector 421  InetUnderlayNetwork.overlayTerminal[1].tcp  "rcvd ack"  ETV
vector 415  InetUnderlayNetwork.overlayTerminal[1].tcp  "send window"  ETV
vector 418  InetUnderlayNetwork.overlayTerminal[1].tcp  "sent seq"  ETV
vector 422  InetUnderlayNetwork.overlayTerminal[1].tcp  "unacked bytes"  ETV
vector 456  InetUnderlayNetwork.overlayTerminal[1].tcp  "measured RTT"  ETV
vector 457  InetUnderlayNetwork.overlayTerminal[1].tcp  "smoothed RTT"  ETV
vector 458  InetUnderlayNetwork.overlayTerminal[1].tcp  RTTVAR  ETV
vector 459  InetUnderlayNetwork.overlayTerminal[1].tcp  RTO  ETV
vector 454  InetUnderlayNetwork.overlayTerminal[1].tcp  cwnd  ETV
vector 446  InetUnderlayNetwork.overlayTerminal[1].tcp  "rcvd dupAcks"  ETV
vector 337  InetUnderlayNetwork.inet.applications.BitTorrent.BTHostSeeder.tcp  "measured RTT"  ETV
vector 338  InetUnderlayNetwork.inet.applications.BitTorrent.BTHostSeeder.tcp  "smoothed RTT"  ETV
vector 339  InetUnderlayNetwork.inet.applications.BitTorrent.BTHostSeeder.tcp  RTTVAR  ETV
vector 340  InetUnderlayNetwork.inet.applications.BitTorrent.BTHostSeeder.tcp  RTO  ETV
vector 335  InetUnderlayNetwork.inet.applications.BitTorrent.BTHostSeeder.tcp  cwnd  ETV
vector 188  InetUnderlayNetwork.overlayTerminal[0].tcp  "unacked bytes"  ETV
vector 189  InetUnderlayNetwork.overlayTerminal[0].tcp  "rcvd dupAcks"  ETV
vector 184  InetUnderlayNetwork.overlayTerminal[0].tcp  "sent seq"  ETV
vector 433  InetUnderlayNetwork.overlayTerminal[1].tcp  "measured RTT"  ETV
vector 434  InetUnderlayNetwork.overlayTerminal[1].tcp  "smoothed RTT"  ETV
vector 435  InetUnderlayNetwork.overlayTerminal[1].tcp  RTTVAR  ETV
vector 436  InetUnderlayNetwork.overlayTerminal[1].tcp  RTO  ETV
vector 431  InetUnderlayNetwork.overlayTerminal[1].tcp  cwnd  ETV
vector 423  InetUnderlayNetwork.overlayTerminal[1].tcp  "rcvd dupAcks"  ETV
vector 199  InetUnderlayNetwork.overlayTerminal[0].tcp  "measured RTT"  ETV
vector 200  InetUnderlayNetwork.overlayTerminal[0].tcp  "smoothed RTT"  ETV
vector 201  InetUnderlayNetwork.overlayTerminal[0].tcp  RTTVAR  ETV
vector 202  InetUnderlayNetwork.overlayTerminal[0].tcp  RTO  ETV
vector 197  InetUnderlayNetwork.overlayTerminal[0].tcp  cwnd  ETV
vector 548  InetUnderlayNetwork.overlayTerminal[2].tcp  tcpRcvQueueBytes  ETV
vector 536  InetUnderlayNetwork.overlayTerminal[2].tcp  "advertised window"  ETV
vector 535  InetUnderlayNetwork.overlayTerminal[2].tcp  "receive window"  ETV
vector 538  InetUnderlayNetwork.overlayTerminal[2].tcp  "sent ack"  ETV
vector 397  InetUnderlayNetwork.inet.applications.BitTorrent.Tracker.tcp  "rcvd seq"  ETV
vector 398  InetUnderlayNetwork.inet.applications.BitTorrent.Tracker.tcp  "rcvd ack"  ETV
vector 394  InetUnderlayNetwork.inet.applications.BitTorrent.Tracker.tcp  "advertised window"  ETV
vector 392  InetUnderlayNetwork.inet.applications.BitTorrent.Tracker.tcp  "send window"  ETV
vector 406  InetUnderlayNetwork.inet.applications.BitTorrent.Tracker.tcp  tcpRcvQueueBytes  ETV
vector 393  InetUnderlayNetwork.inet.applications.BitTorrent.Tracker.tcp  "receive window"  ETV
vector 396  InetUnderlayNetwork.inet.applications.BitTorrent.Tracker.tcp  "sent ack"  ETV
vector 539  InetUnderlayNetwork.overlayTerminal[2].tcp  "rcvd seq"  ETV
vector 540  InetUnderlayNetwork.overlayTerminal[2].tcp  "rcvd ack"  ETV
vector 534  InetUnderlayNetwork.overlayTerminal[2].tcp  "send window"  ETV
vector 537  InetUnderlayNetwork.overlayTerminal[2].tcp  "sent seq"  ETV
vector 541  InetUnderlayNetwork.overlayTerminal[2].tcp  "unacked bytes"  ETV
vector 509  InetUnderlayNetwork.overlayTerminal[2].ppp[0].queue  "queue length"  ETV
vector 399  InetUnderlayNetwork.inet.applications.BitTorrent.Tracker.tcp  "unacked bytes"  ETV
vector 400  InetUnderlayNetwork.inet.applications.BitTorrent.Tracker.tcp  "rcvd dupAcks"  ETV
vector 395  InetUnderlayNetwork.inet.applications.BitTorrent.Tracker.tcp  "sent seq"  ETV
vector 507  InetUnderlayNetwork.accessRouter[3].ppp[1].queue  "queue length"  ETV
vector 552  InetUnderlayNetwork.overlayTerminal[2].tcp  "measured RTT"  ETV
vector 553  InetUnderlayNetwork.overlayTerminal[2].tcp  "smoothed RTT"  ETV
vector 554  InetUnderlayNetwork.overlayTerminal[2].tcp  RTTVAR  ETV
vector 555  InetUnderlayNetwork.overlayTerminal[2].tcp  RTO  ETV
vector 550  InetUnderlayNetwork.overlayTerminal[2].tcp  cwnd  ETV
vector 542  InetUnderlayNetwork.overlayTerminal[2].tcp  "rcvd dupAcks"  ETV
vector 594  InetUnderlayNetwork.overlayTerminal[2].tcp  tcpRcvQueueBytes  ETV
vector 582  InetUnderlayNetwork.overlayTerminal[2].tcp  "advertised window"  ETV
vector 581  InetUnderlayNetwork.overlayTerminal[2].tcp  "receive window"  ETV
vector 584  InetUnderlayNetwork.overlayTerminal[2].tcp  "sent ack"  ETV
vector 617  InetUnderlayNetwork.overlayTerminal[2].tcp  tcpRcvQueueBytes  ETV
vector 605  InetUnderlayNetwork.overlayTerminal[2].tcp  "advertised window"  ETV
vector 604  InetUnderlayNetwork.overlayTerminal[2].tcp  "receive window"  ETV
vector 607  InetUnderlayNetwork.overlayTerminal[2].tcp  "sent ack"  ETV
vector 640  InetUnderlayNetwork.overlayTerminal[2].tcp  tcpRcvQueueBytes  ETV
vector 628  InetUnderlayNetwork.overlayTerminal[2].tcp  "advertised window"  ETV
vector 627  InetUnderlayNetwork.overlayTerminal[2].tcp  "receive window"  ETV
vector 630  InetUnderlayNetwork.overlayTerminal[2].tcp  "sent ack"  ETV
vector 410  InetUnderlayNetwork.inet.applications.BitTorrent.Tracker.tcp  "measured RTT"  ETV
vector 411  InetUnderlayNetwork.inet.applications.BitTorrent.Tracker.tcp  "smoothed RTT"  ETV
vector 412  InetUnderlayNetwork.inet.applications.BitTorrent.Tracker.tcp  RTTVAR  ETV
vector 413  InetUnderlayNetwork.inet.applications.BitTorrent.Tracker.tcp  RTO  ETV
vector 408  InetUnderlayNetwork.inet.applications.BitTorrent.Tracker.tcp  cwnd  ETV
vector 351  InetUnderlayNetwork.overlayTerminal[1].tcp  "rcvd seq"  ETV
vector 352  InetUnderlayNetwork.overlayTerminal[1].tcp  "rcvd ack"  ETV
vector 348  InetUnderlayNetwork.overlayTerminal[1].tcp  "advertised window"  ETV
vector 346  InetUnderlayNetwork.overlayTerminal[1].tcp  "send window"  ETV
vector 360  InetUnderlayNetwork.overlayTerminal[1].tcp  tcpRcvQueueBytes  ETV
vector 347  InetUnderlayNetwork.overlayTerminal[1].tcp  "receive window"  ETV
vector 350  InetUnderlayNetwork.overlayTerminal[1].tcp  "sent ack"  ETV
vector 466  InetUnderlayNetwork.inet.applications.BitTorrent.BTHostSeeder.tcp  "rcvd seq"  ETV
vector 467  InetUnderlayNetwork.inet.applications.BitTorrent.BTHostSeeder.tcp  "rcvd ack"  ETV
vector 463  InetUnderlayNetwork.inet.applications.BitTorrent.BTHostSeeder.tcp  "advertised window"  ETV
vector 461  InetUnderlayNetwork.inet.applications.BitTorrent.BTHostSeeder.tcp  "send window"  ETV
vector 475  InetUnderlayNetwork.inet.applications.BitTorrent.BTHostSeeder.tcp  tcpRcvQueueBytes  ETV
vector 462  InetUnderlayNetwork.inet.applications.BitTorrent.BTHostSeeder.tcp  "receive window"  ETV
vector 465  InetUnderlayNetwork.inet.applications.BitTorrent.BTHostSeeder.tcp  "sent ack"  ETV
vector 489  InetUnderlayNetwork.overlayTerminal[0].tcp  "rcvd seq"  ETV
vector 490  InetUnderlayNetwork.overlayTerminal[0].tcp  "rcvd ack"  ETV
vector 486  InetUnderlayNetwork.overlayTerminal[0].tcp  "advertised window"  ETV
vector 484  InetUnderlayNetwork.overlayTerminal[0].tcp  "send window"  ETV
vector 498  InetUnderlayNetwork.overlayTerminal[0].tcp  tcpRcvQueueBytes  ETV
vector 485  InetUnderlayNetwork.overlayTerminal[0].tcp  "receive window"  ETV
vector 488  InetUnderlayNetwork.overlayTerminal[0].tcp  "sent ack"  ETV
vector 585  InetUnderlayNetwork.overlayTerminal[2].tcp  "rcvd seq"  ETV
vector 586  InetUnderlayNetwork.overlayTerminal[2].tcp  "rcvd ack"  ETV
vector 580  InetUnderlayNetwork.overlayTerminal[2].tcp  "send window"  ETV
vector 583  InetUnderlayNetwork.overlayTerminal[2].tcp  "sent seq"  ETV
vector 587  InetUnderlayNetwork.overlayTerminal[2].tcp  "unacked bytes"  ETV
vector 631  InetUnderlayNetwork.overlayTerminal[2].tcp  "rcvd seq"  ETV
vector 632  InetUnderlayNetwork.overlayTerminal[2].tcp  "rcvd ack"  ETV
vector 626  InetUnderlayNetwork.overlayTerminal[2].tcp  "send window"  ETV
vector 629  InetUnderlayNetwork.overlayTerminal[2].tcp  "sent seq"  ETV
vector 633  InetUnderlayNetwork.overlayTerminal[2].tcp  "unacked bytes"  ETV
vector 608  InetUnderlayNetwork.overlayTerminal[2].tcp  "rcvd seq"  ETV
vector 609  InetUnderlayNetwork.overlayTerminal[2].tcp  "rcvd ack"  ETV
vector 603  InetUnderlayNetwork.overlayTerminal[2].tcp  "send window"  ETV
vector 606  InetUnderlayNetwork.overlayTerminal[2].tcp  "sent seq"  ETV
vector 610  InetUnderlayNetwork.overlayTerminal[2].tcp  "unacked bytes"  ETV
408	2939	440.209393375	1072
408	3280	440.296972797	1608
410	2939	440.209393375	0.090131422
411	2939	440.209393375	0.011266427
412	2939	440.209393375	0.667516428
413	2939	440.209393375	2.681332139
392	2611	440.031336733	7504
392	2707	440.118199364	7504
392	2939	440.209393375	7504
392	3280	440.296972797	7504
393	2611	440.031336733	7504
393	2711	440.119261953	7504
393	2714	440.119261953	7504
393	2942	440.209769375	7504
393	2945	440.209769375	7504
394	2611	440.031336733	110004476
394	2611	440.031336733	110004476
394	2711	440.119261953	110004554
394	2714	440.119261953	110004554
394	2942	440.209769375	110004555
394	2945	440.209769375	110004555
395	2714	440.119261953	110007835
396	2611	440.031336733	109996972
396	2711	440.119261953	109997050
396	2714	440.119261953	109997050
396	2942	440.209769375	109997051
396	2945	440.209769375	109997051
397	2611	440.031336733	109996971
397	2707	440.118199364	109996972
397	2711	440.119261953	109996972
397	2939	440.209393375	109997050
397	2942	440.209769375	109997050
397	3280	440.296972797	109997051
398	2611	440.031336733	0
398	2707	440.118199364	110007835
398	2711	440.119261953	110007835
398	2939	440.209393375	110008201
398	2942	440.209769375	110008201
398	3280	440.296972797	110008202
399	2707	440.118199364	0
399	2714	440.119261953	366
399	2939	440.209393375	0
399	2945	440.209769375	1
399	3280	440.296972797	0
400	2711	440.119261953	0
400	2939	440.209393375	0
400	2942	440.209769375	0
400	3280	440.296972797	0
406	2611	440.031336733	0
406	2711	440.119261953	0
406	2711	440.119261953	0
406	2714	440.119261953	0
406	2942	440.209769375	0
406	2945	440.209769375	0
vector 353  InetUnderlayNetwork.overlayTerminal[1].tcp  "unacked bytes"  ETV
vector 354  InetUnderlayNetwork.overlayTerminal[1].tcp  "rcvd dupAcks"  ETV
vector 349  InetUnderlayNetwork.overlayTerminal[1].tcp  "sent seq"  ETV
vector 468  InetUnderlayNetwork.inet.applications.BitTorrent.BTHostSeeder.tcp  "unacked bytes"  ETV
vector 469  InetUnderlayNetwork.inet.applications.BitTorrent.BTHostSeeder.tcp  "rcvd dupAcks"  ETV
vector 464  InetUnderlayNetwork.inet.applications.BitTorrent.BTHostSeeder.tcp  "sent seq"  ETV
vector 598  InetUnderlayNetwork.overlayTerminal[2].tcp  "measured RTT"  ETV
vector 599  InetUnderlayNetwork.overlayTerminal[2].tcp  "smoothed RTT"  ETV
vector 600  InetUnderlayNetwork.overlayTerminal[2].tcp  RTTVAR  ETV
vector 601  InetUnderlayNetwork.overlayTerminal[2].tcp  RTO  ETV
vector 596  InetUnderlayNetwork.overlayTerminal[2].tcp  cwnd  ETV
vector 588  InetUnderlayNetwork.overlayTerminal[2].tcp  "rcvd dupAcks"  ETV
vector 644  InetUnderlayNetwork.overlayTerminal[2].tcp  "measured RTT"  ETV
vector 645  InetUnderlayNetwork.overlayTerminal[2].tcp  "smoothed RTT"  ETV
vector 646  InetUnderlayNetwork.overlayTerminal[2].tcp  RTTVAR  ETV
vector 647  InetUnderlayNetwork.overlayTerminal[2].tcp  RTO  ETV
vector 642  InetUnderlayNetwork.overlayTerminal[2].tcp  cwnd  ETV