                                                                
version 2
run BitTorrent-0-20141217-09:46:55-8228
attr configname BitTorrent
attr datetime 20141217-09:46:55
attr experiment BitTorrent
attr inifile omnetpp.ini
attr iterationvars ""
attr iterationvars2 $repetition=0
attr measurement ""
attr network oversim.underlay.inetunderlay.InetUnderlayNetwork
attr processid 8228
attr repetition 0
attr replication #0
attr resultdir results
attr runnumber 0
attr seedset 0

vector 218  InetUnderlayNetwork.inet.applications.BitTorrent.BTHostSeeder.tcp  tcpRcvQueueBytes  ETV
vector 206  InetUnderlayNetwork.inet.applications.BitTorrent.BTHostSeeder.tcp  "advertised window"  ETV
vector 205  InetUnderlayNetwork.inet.applications.BitTorrent.BTHostSeeder.tcp  "receive window"  ETV
vector 208  InetUnderlayNetwork.inet.applications.BitTorrent.BTHostSeeder.tcp  "sent ack"  ETV
vector 241  InetUnderlayNetwork.overlayTerminal[0].tcp  tcpRcvQueueBytes  ETV
vector 229  InetUnderlayNetwork.overlayTerminal[0].tcp  "advertised window"  ETV
vector 228  InetUnderlayNetwork.overlayTerminal[0].tcp  "receive window"  ETV
vector 231  InetUnderlayNetwork.overlayTerminal[0].tcp  "sent ack"  ETV
vector 140  InetUnderlayNetwork.inet.applications.BitTorrent.Tracker.tcp  "rcvd seq"  ETV
vector 141  InetUnderlayNetwork.inet.applications.BitTorrent.Tracker.tcp  "rcvd ack"  ETV
vector 137  InetUnderlayNetwork.inet.applications.BitTorrent.Tracker.tcp  "advertised window"  ETV
vector 135  InetUnderlayNetwork.inet.applications.BitTorrent.Tracker.tcp  "send window"  ETV
vector 149  InetUnderlayNetwork.inet.applications.BitTorrent.Tracker.tcp  tcpRcvQueueBytes  ETV
vector 136  InetUnderlayNetwork.inet.applications.BitTorrent.Tracker.tcp  "receive window"  ETV
vector 139  InetUnderlayNetwork.inet.applications.BitTorrent.Tracker.tcp  "sent ack"  ETV
vector 255  InetUnderlayNetwork.inet.applications.BitTorrent.Tracker.tcp  "rcvd seq"  ETV
vector 256  InetUnderlayNetwork.inet.applications.BitTorrent.Tracker.tcp  "rcvd ack"  ETV
vector 252  InetUnderlayNetwork.inet.applications.BitTorrent.Tracker.tcp  "advertised window"  ETV
vector 250  InetUnderlayNetwork.inet.applications.BitTorrent.Tracker.tcp  "send window"  ETV
vector 264  InetUnderlayNetwork.inet.applications.BitTorrent.Tracker.tcp  tcpRcvQueueBytes  ETV
vector 251  InetUnderlayNetwork.inet.applications.BitTorrent.Tracker.tcp  "receive window"  ETV
vector 254  InetUnderlayNetwork.inet.applications.BitTorrent.Tracker.tcp  "sent ack"  ETV
vector 209  InetUnderlayNetwork.inet.applications.BitTorrent.BTHostSeeder.tcp  "rcvd seq"  ETV
vector 210  InetUnderlayNetwork.inet.applications.BitTorrent.BTHostSeeder.tcp  "rcvd ack"  ETV
vector 204  InetUnderlayNetwork.inet.applications.BitTorrent.BTHostSeeder.tcp  "send window"  ETV
vector 207  InetUnderlayNetwork.inet.applications.BitTorrent.BTHostSeeder.tcp  "sent seq"  ETV
vector 211  InetUnderlayNetwork.inet.applications.BitTorrent.BTHostSeeder.tcp  "unacked bytes"  ETV
vector 129  InetUnderlayNetwork.inet.applications.BitTorrent.BTHostSeeder.ppp[0].queue  "queue length"  ETV
vector 142  InetUnderlayNetwork.inet.applications.BitTorrent.Tracker.tcp  "unacked bytes"  ETV
vector 143  InetUnderlayNetwork.inet.applications.BitTorrent.Tracker.tcp  "rcvd dupAcks"  ETV
vector 138  InetUnderlayNetwork.inet.applications.BitTorrent.Tracker.tcp  "sent seq"  ETV
vector 125  InetUnderlayNetwork.inet.applications.BitTorrent.Tracker.ppp[0].queue  "queue length"  ETV
vector 232  InetUnderlayNetwork.overlayTerminal[0].tcp  "rcvd seq"  ETV
vector 233  InetUnderlayNetwork.overlayTerminal[0].tcp  "rcvd ack"  ETV
vector 227  InetUnderlayNetwork.overlayTerminal[0].tcp  "send window"  ETV
vector 230  InetUnderlayNetwork.overlayTerminal[0].tcp  "sent seq"  ETV
vector 234  InetUnderlayNetwork.overlayTerminal[0].tcp  "unacked bytes"  ETV
vector 133  InetUnderlayNetwork.overlayTerminal[0].ppp[0].queue  "queue length"  ETV
vector 222  InetUnderlayNetwork.inet.applications.BitTorrent.BTHostSeeder.tcp  "measured RTT"  ETV
vector 223  InetUnderlayNetwork.inet.applications.BitTorrent.BTHostSeeder.tcp  "smoothed RTT"  ETV
vector 224  InetUnderlayNetwork.inet.applications.BitTorrent.BTHostSeeder.tcp  RTTVAR  ETV
vector 225  InetUnderlayNetwork.inet.applications.BitTorrent.BTHostSeeder.tcp  RTO  ETV
vector 220  InetUnderlayNetwork.inet.applications.BitTorrent.BTHostSeeder.tcp  cwnd  ETV
vector 212  InetUnderlayNetwork.inet.applications.BitTorrent.BTHostSeeder.tcp  "rcvd dupAcks"  ETV
vector 153  InetUnderlayNetwork.inet.applications.BitTorrent.Tracker.tcp  "measured RTT"  ETV
vector 154  InetUnderlayNetwork.inet.applications.BitTorrent.Tracker.tcp  "smoothed RTT"  ETV
vector 155  InetUnderlayNetwork.inet.applications.BitTorrent.Tracker.tcp  RTTVAR  ETV
vector 156  InetUnderlayNetwork.inet.applications.BitTorrent.Tracker.tcp  RTO  ETV
vector 151  InetUnderlayNetwork.inet.applications.BitTorrent.Tracker.tcp  cwnd  ETV
vector 257  InetUnderlayNetwork.inet.applications.BitTorrent.Tracker.tcp  "unacked bytes"  ETV
vector 258  InetUnderlayNetwork.inet.applications.BitTorrent.Tracker.tcp  "rcvd dupAcks"  ETV
vector 253  InetUnderlayNetwork.inet.applications.BitTorrent.Tracker.tcp  "sent seq"  ETV
vector 131  InetUnderlayNetwork.accessRouter[4].ppp[1].queue  "queue length"  ETV
151	5295 56 346 534 224.057829735 224.104055557 2 1072 1608 2680 3734848
153	5351 35 346 346 224.057829735 224.057829735 1 0.046362883 0.046362883 0.046362883 0.0021495169200717
154	5386 34 346 346 224.057829735 224.057829735 1 0.00579536 0.00579536 0.00579536 3.35861975296e-005
155	5420 35 346 346 224.057829735 224.057829735 1 0.662045361 0.662045361 0.662045361 0.43830406002162
156	5455 35 346 346 224.057829735 224.057829735 1 2.653976804 2.653976804 2.653976804 7.0435928761701
135	5490 111 52 534 223.965147232 224.104055557 4 7504 7504 30016 225240064
136	5601 139 52 352 223.965147232 224.057867335 5 7504 7504 37520 281550080
137	5740 190 52 352 223.965147232 224.057867335 6 55993021 55993100 335958440 1.881134556788e+016
138	5930 32 198 198 224.011466852 224.011466852 1 55991287 55991287 55991287 3.1350242199164e+015
139	5962 159 52 352 223.965147232 224.057867335 5 55985517 55985596 279927899 1.5671925727716e+016
140	6121 191 52 534 223.965147232 224.104055557 6 55985516 55985596 335913336 1.8806294883784e+016
141	6312 184 52 534 223.965147232 224.104055557 6 0 55991397 279956763 1.5675157829902e+016
142	6496 127 191 534 224.011304263 224.104055557 5 0 109 110 11882
143	6623 100 195 534 224.011466852 224.104055557 4 0 0 0 0
149	6723 149 52 352 223.965147232 224.057867335 6 0 0 0 0
vector 245  InetUnderlayNetwork.overlayTerminal[0].tcp  "measured RTT"  ETV
vector 246  InetUnderlayNetwork.overlayTerminal[0].tcp  "smoothed RTT"  ETV
vector 247  InetUnderlayNetwork.overlayTerminal[0].tcp  RTTVAR  ETV
vector 248  InetUnderlayNetwork.overlayTerminal[0].tcp  RTO  ETV
vector 243  InetUnderlayNetwork.overlayTerminal[0].tcp  cwnd  ETV
vector 235  InetUnderlayNetwork.overlayTerminal[0].tcp  "rcvd dupAcks"  ETV
vector 310  InetUnderlayNetwork.overlayTerminal[0].tcp  tcpRcvQueueBytes  ETV
vector 298  InetUnderlayNetwork.overlayTerminal[0].tcp  "advertised window"  ETV
vector 297  InetUnderlayNetwork.overlayTerminal[0].tcp  "receive window"  ETV
vector 300  InetUnderlayNetwork.overlayTerminal[0].tcp  "sent ack"  ETV
vector 268  InetUnderlayNetwork.inet.applications.BitTorrent.Tracker.tcp  "measured RTT"  ETV
vector 269  InetUnderlayNetwork.inet.applications.BitTorrent.Tracker.tcp  "smoothed RTT"  ETV
vector 270  InetUnderlayNetwork.inet.applications.BitTorrent.Tracker.tcp  RTTVAR  ETV
vector 271  InetUnderlayNetwork.inet.applications.BitTorrent.Tracker.tcp  RTO  ETV
vector 266  InetUnderlayNetwork.inet.applications.BitTorrent.Tracker.tcp  cwnd  ETV
vector 163  InetUnderlayNetwork.inet.applications.BitTorrent.BTHostSeeder.tcp  "rcvd seq"  ETV
vector 164  InetUnderlayNetwork.inet.applications.BitTorrent.BTHostSeeder.tcp  "rcvd ack"  ETV
vector 160  InetUnderlayNetwork.inet.applications.BitTorrent.BTHostSeeder.tcp  "advertised window"  ETV
vector 158  InetUnderlayNetwork.inet.applications.BitTorrent.BTHostSeeder.tcp  "send window"  ETV
vector 172  InetUnderlayNetwork.inet.applications.BitTorrent.BTHostSeeder.tcp  tcpRcvQueueBytes  ETV
vector 159  InetUnderlayNetwork.inet.applications.BitTorrent.BTHostSeeder.tcp  "receive window"  ETV
vector 162  InetUnderlayNetwork.inet.applications.BitTorrent.BTHostSeeder.tcp  "sent ack"  ETV
vector 301  InetUnderlayNetwork.overlayTerminal[0].tcp  "rcvd seq"  ETV
vector 302  InetUnderlayNetwork.overlayTerminal[0].tcp  "rcvd ack"  ETV
vector 296  InetUnderlayNetwork.overlayTerminal[0].tcp  "send window"  ETV
vector 299  InetUnderlayNetwork.overlayTerminal[0].tcp  "sent seq"  ETV
vector 303  InetUnderlayNetwork.overlayTerminal[0].tcp  "unacked bytes"  ETV
266	9133 55 627 807 224.15732282 224.242902168 2 1072 1608 2680 3734848
268	9188 34 627 627 224.15732282 224.15732282 1 0.086883348 0.086883348 0.086883348 0.0075487161596891
269	9222 34 627 627 224.15732282 224.15732282 1 0.010860418 0.010860418 0.010860418 0.00011794867913472
270	9256 34 627 627 224.15732282 224.15732282 1 0.667110419 0.667110419 0.667110419 0.44503631113836
271	9290 34 627 627 224.15732282 224.15732282 1 2.679302094 2.679302094 2.679302094 7.1786597109128
250	9324 111 102 807 223.984514392 224.242902168 4 7504 7504 30016 225240064
251	9435 138 102 633 223.984514392 224.15769882 5 7504 7504 37520 281550080
252	9573 190 102 633 223.984514392 224.15769882 6 55993021 55993100 335958440 1.881134556788e+016
253	9763 32 437 437 224.070439472 224.070439472 1 55996129 55996129 55996129 3.1355664629846e+015
254	9795 158 102 633 223.984514392 224.15769882 5 55985517 55985596 279927899 1.5671925727716e+016
255	9953 190 102 807 223.984514392 224.242902168 6 55985516 55985596 335913336 1.8806294883784e+016
256	10143 183 102 807 223.984514392 224.242902168 6 0 55996340 279981276 1.5677902982171e+016
257	10326 125 418 807 224.069376946 224.242902168 5 0 210 211 44101
258	10451 98 434 807 224.070439472 224.242902168 4 0 0 0 0
264	10549 148 102 633 223.984514392 224.15769882 6 0 0 0 0
vector 165  InetUnderlayNetwork.inet.applications.BitTorrent.BTHostSeeder.tcp  "unacked bytes"  ETV
vector 166  InetUnderlayNetwork.inet.applications.BitTorrent.BTHostSeeder.tcp  "rcvd dupAcks"  ETV
vector 161  InetUnderlayNetwork.inet.applications.BitTorrent.BTHostSeeder.tcp  "sent seq"  ETV
vector 314  InetUnderlayNetwork.overlayTerminal[0].tcp  "measured RTT"  ETV
vector 315  InetUnderlayNetwork.overlayTerminal[0].tcp  "smoothed RTT"  ETV
vector 316  InetUnderlayNetwork.overlayTerminal[0].tcp  RTTVAR  ETV
vector 317  InetUnderlayNetwork.overlayTerminal[0].tcp  RTO  ETV
vector 312  InetUnderlayNetwork.overlayTerminal[0].tcp  cwnd  ETV
vector 304  InetUnderlayNetwork.overlayTerminal[0].tcp  "rcvd dupAcks"  ETV
vector 176  InetUnderlayNetwork.inet.applications.BitTorrent.BTHostSeeder.tcp  "measured RTT"  ETV
vector 177  InetUnderlayNetwork.inet.applications.BitTorrent.BTHostSeeder.tcp  "smoothed RTT"  ETV
vector 178  InetUnderlayNetwork.inet.applications.BitTorrent.BTHostSeeder.tcp  RTTVAR  ETV
vector 179  InetUnderlayNetwork.inet.applications.BitTorrent.BTHostSeeder.tcp  RTO  ETV
vector 174  InetUnderlayNetwork.inet.applications.BitTorrent.BTHostSeeder.tcp  cwnd  ETV
vector 383  InetUnderlayNetwork.overlayTerminal[1].tcp  tcpRcvQueueBytes  ETV
vector 371  InetUnderlayNetwork.overlayTerminal[1].tcp  "advertised window"  ETV
vector 370  InetUnderlayNetwork.overlayTerminal[1].tcp  "receive window"  ETV
vector 373  InetUnderlayNetwork.overlayTerminal[1].tcp  "sent ack"  ETV
vector 278  InetUnderlayNetwork.inet.applications.BitTorrent.Tracker.tcp  "rcvd seq"  ETV
vector 279  InetUnderlayNetwork.inet.applications.BitTorrent.Tracker.tcp  "rcvd ack"  ETV
vector 275  InetUnderlayNetwork.inet.applications.BitTorrent.Tracker.tcp  "advertised window"  ETV
vector 273  InetUnderlayNetwork.inet.applications.BitTorrent.Tracker.tcp  "send window"  ETV
vector 287  InetUnderlayNetwork.inet.applications.BitTorrent.Tracker.tcp  tcpRcvQueueBytes  ETV
vector 274  InetUnderlayNetwork.inet.applications.BitTorrent.Tracker.tcp  "receive window"  ETV
vector 277  InetUnderlayNetwork.inet.applications.BitTorrent.Tracker.tcp  "sent ack"  ETV
vector 374  InetUnderlayNetwork.overlayTerminal[1].tcp  "rcvd seq"  ETV
vector 375  InetUnderlayNetwork.overlayTerminal[1].tcp  "rcvd ack"  ETV
vector 369  InetUnderlayNetwork.overlayTerminal[1].tcp  "send window"  ETV
vector 372  InetUnderlayNetwork.overlayTerminal[1].tcp  "sent seq"  ETV
vector 376  InetUnderlayNetwork.overlayTerminal[1].tcp  "unacked bytes"  ETV
vector 344  InetUnderlayNetwork.overlayTerminal[1].ppp[0].queue  "queue length"  ETV
vector 280  InetUnderlayNetwork.inet.applications.BitTorrent.Tracker.tcp  "unacked bytes"  ETV
vector 281  InetUnderlayNetwork.inet.applications.BitTorrent.Tracker.tcp  "rcvd dupAcks"  ETV
vector 276  InetUnderlayNetwork.inet.applications.BitTorrent.Tracker.tcp  "sent seq"  ETV
vector 387  InetUnderlayNetwork.overlayTerminal[1].tcp  "measured RTT"  ETV
vector 388  InetUnderlayNetwork.overlayTerminal[1].tcp  "smoothed RTT"  ETV
vector 389  InetUnderlayNetwork.overlayTerminal[1].tcp  RTTVAR  ETV
vector 390  InetUnderlayNetwork.overlayTerminal[1].tcp  RTO  ETV
vector 385  InetUnderlayNetwork.overlayTerminal[1].tcp  cwnd  ETV
vector 377  InetUnderlayNetwork.overlayTerminal[1].tcp  "rcvd dupAcks"  ETV
vector 429  InetUnderlayNetwork.overlayTerminal[1].tcp  tcpRcvQueueBytes  ETV
vector 417  InetUnderlayNetwork.overlayTerminal[1].tcp  "advertised window"  ETV
vector 416  InetUnderlayNetwork.overlayTerminal[1].tcp  "receive window"  ETV
vector 419  InetUnderlayNetwork.overlayTerminal[1].tcp  "sent ack"  ETV
vector 452  InetUnderlayNetwork.overlayTerminal[1].tcp  tcpRcvQueueBytes  ETV
vector 440  InetUnderlayNetwork.overlayTerminal[1].tcp  "advertised window"  ETV
vector 439  InetUnderlayNetwork.overlayTerminal[1].tcp  "receive window"  ETV
vector 442  InetUnderlayNetwork.overlayTerminal[1].tcp  "sent ack"  ETV
vector 291  InetUnderlayNetwork.inet.applications.BitTorrent.Tracker.tcp  "measured RTT"  ETV
vector 292  InetUnderlayNetwork.inet.applications.BitTorrent.Tracker.tcp  "smoothed RTT"  ETV
vector 293  InetUnderlayNetwork.inet.applications.BitTorrent.Tracker.tcp  RTTVAR  ETV
vector 294  InetUnderlayNetwork.inet.applications.BitTorrent.Tracker.tcp  RTO  ETV
vector 289  InetUnderlayNetwork.inet.applications.BitTorrent.Tracker.tcp  cwnd  ETV
vector 324  InetUnderlayNetwork.inet.applications.BitTorrent.BTHostSeeder.tcp  "rcvd seq"  ETV
vector 325  InetUnderlayNetwork.inet.applications.BitTorrent.BTHostSeeder.tcp  "rcvd ack"  ETV
vector 321  InetUnderlayNetwork.inet.applications.BitTorrent.BTHostSeeder.tcp  "advertised window"  ETV
vector 319  InetUnderlayNetwork.inet.applications.BitTorrent.BTHostSeeder.tcp  "send window"  ETV
vector 333  InetUnderlayNetwork.inet.applications.BitTorrent.BTHostSeeder.tcp  tcpRcvQueueBytes  ETV
vector 320  InetUnderlayNetwork.inet.applications.BitTorrent.BTHostSeeder.tcp  "receive window"  ETV
vector 323  InetUnderlayNetwork.inet.applications.BitTorrent.BTHostSeeder.tcp  "sent ack"  ETV
vector 186  InetUnderlayNetwork.overlayTerminal[0].tcp  "rcvd seq"  ETV
vector 187  InetUnderlayNetwork.overlayTerminal[0].tcp  "rcvd ack"  ETV
vector 183  InetUnderlayNetwork.overlayTerminal[0].tcp  "advertised window"  ETV
vector 181  InetUnderlayNetwork.overlayTerminal[0].tcp  "send window"  ETV
vector 195  InetUnderlayNetwork.overlayTerminal[0].tcp  tcpRcvQueueBytes  ETV
vector 182  InetUnderlayNetwork.overlayTerminal[0].tcp  "receive window"  ETV
vector 185  InetUnderlayNetwork.overlayTerminal[0].tcp  "sent ack"  ETV
vector 443  InetUnderlayNetwork.overlayTerminal[1].tcp  "rcvd seq"  ETV
vector 444  InetUnderlayNetwork.overlayTerminal[1].tcp  "rcvd ack"  ETV
vector 438  InetUnderlayNetwork.overlayTerminal[1].tcp  "send window"  ETV
vector 441  InetUnderlayNetwork.overlayTerminal[1].tcp  "sent seq"  ETV
vector 445  InetUnderlayNetwork.overlayTerminal[1].tcp  "unacked bytes"  ETV
289	16722 58 1348 1536 283.123320156 283.167545904 2 1072 1608 2680 3734848
291	16780 35 1348 1348 283.123320156 283.123320156 1 0.04464941 0.04464941 0.04464941 0.0019935698133481
292	16815 36 1348 1348 283.123320156 283.123320156 1 0.005581176 0.005581176 0.005581176 3.1149525542976e-005
293	16851 36 1348 1348 283.123320156 283.123320156 1 0.661831177 0.661831177 0.661831177 0.43802050684921
294	16887 36 1348 1348 283.123320156 283.123320156 1 2.652905884 2.652905884 2.652905884 7.0379096293618
273	16923 115 1101 1536 283.034351266 283.167545904 4 7504 7504 30016 225240064
274	17038 145 1101 1354 283.034351266 283.123357756 5 7504 7504 37520 281550080
275	17183 198 1101 1354 283.034351266 283.123357756 6 70760572 70760651 424563746 3.0042395736267e+016
276	17381 33 1185 1185 283.078670746 283.078670746 1 70758588 70758588 70758588 5.0067777757537e+015
277	17414 165 1101 1354 283.034351266 283.123357756 5 70753068 70753147 353765654 2.5030027590014e+016
278	17579 197 1101 1536 283.034351266 283.167545904 6 70753067 70753147 424518642 3.003601290093e+016
279	17776 190 1101 1536 283.034351266 283.167545904 6 0 70758877 353793805 2.5034011291375e+016
280	17966 131 1178 1536 283.07850822 283.167545904 5 0 288 289 82945
281	18097 104 1182 1536 283.078670746 283.167545904 4 0 0 0 0
287	18201 156 1101 1354 283.034351266 283.123357756 6 0 0 0 0
vector 326  InetUnderlayNetwork.inet.applications.BitTorrent.BTHostSeeder.tcp  "unacked bytes"  ETV
vector 327  InetUnderlayNetwork.inet.applications.BitTorrent.BTHostSeeder.tcp  "rcvd dupAcks"  ETV
vector 322  InetUnderlayNetwork.inet.applications.BitTorrent.BTHostSeeder.tcp  "sent seq"  ETV
vector 342  InetUnderlayNetwork.accessRouter[5].ppp[1].queue  "queue length"  ETV
vector 420  InetUnderlayNetwork.overlayTerminal[1].tcp  "rcvd seq"  ETV
vector 421  InetUnderlayNetwork.overlayTerminal[1].tcp  "rcvd ack"  ETV
vector 415  InetUnderlayNetwork.overlayTerminal[1].tcp  "send window"  ETV
vector 418  InetUnderlayNetwork.overlayTerminal[1].tcp  "sent seq"  ETV
vector 422  InetUnderlayNetwork.overlayTerminal[1].tcp  "unacked bytes"  ETV
vector 456  InetUnderlayNetwork.overlayTerminal[1].tcp  "measured RTT"  ETV
vector 457  InetUnderlayNetwork.overlayTerminal[1].tcp  "smoothed RTT"  ETV
vector 458  InetUnderlayNetwork.overlayTerminal[1].tcp  RTTVAR  ETV
vector 459  InetUnderlayNetwork.overlayTerminal[1].tcp  RTO  ETV
vector 454  InetUnderlayNetwork.overlayTerminal[1].tcp  cwnd  ETV
vector 446  InetUnderlayNetwork.overlayTerminal[1].tcp  "rcvd dupAcks"  ETV
vector 337  InetUnderlayNetwork.inet.applications.BitTorrent.BTHostSeeder.tcp  "measured RTT"  ETV
vector 338  InetUnderlayNetwork.inet.applications.BitTorrent.BTHostSeeder.tcp  "smoothed RTT"  ETV
vector 339  InetUnderlayNetwork.inet.applications.BitTorrent.BTHostSeeder.tcp  RTTVAR  ETV
vector 340  InetUnderlayNetwork.inet.applications.BitTorrent.BTHostSeeder.tcp  RTO  ETV
vector 335  InetUnderlayNetwork.inet.applications.BitTorrent.BTHostSeeder.tcp  cwnd  ETV
vector 188  InetUnderlayNetwork.overlayTerminal[0].tcp  "unacked bytes"  ETV
vector 189  InetUnderlayNetwork.overlayTerminal[0].tcp  "rcvd dupAcks"  ETV
vector 184  InetUnderlayNetwork.overlayTerminal[0].tcp  "sent seq"  ETV
vector 433  InetUnderlayNetwork.overlayTerminal[1].tcp  "measured RTT"  ETV
vector 434  InetUnderlayNetwork.overlayTerminal[1].tcp  "smoothed RTT"  ETV
vector 435  InetUnderlayNetwork.overlayTerminal[1].tcp  RTTVAR  ETV
vector 436  InetUnderlayNetwork.overlayTerminal[1].tcp  RTO  ETV
vector 431  InetUnderlayNetwork.overlayTerminal[1].tcp  cwnd  ETV
vector 423  InetUnderlayNetwork.overlayTerminal[1].tcp  "rcvd dupAcks"  ETV
vector 199  InetUnderlayNetwork.overlayTerminal[0].tcp  "measured RTT"  ETV
vector 200  InetUnderlayNetwork.overlayTerminal[0].tcp  "smoothed RTT"  ETV
vector 201  InetUnderlayNetwork.overlayTerminal[0].tcp  RTTVAR  ETV
vector 202  InetUnderlayNetwork.overlayTerminal[0].tcp  RTO  ETV
vector 197  InetUnderlayNetwork.overlayTerminal[0].tcp  cwnd  ETV
vector 548  InetUnderlayNetwork.overlayTerminal[2].tcp  tcpRcvQueueBytes  ETV
vector 536  InetUnderlayNetwork.overlayTerminal[2].tcp  "advertised window"  ETV
vector 535  InetUnderlayNetwork.overlayTerminal[2].tcp  "receive window"  ETV
vector 538  InetUnderlayNetwork.overlayTerminal[2].tcp  "sent ack"  ETV
vector 397  InetUnderlayNetwork.inet.applications.BitTorrent.Tracker.tcp  "rcvd seq"  ETV
vector 398  InetUnderlayNetwork.inet.applications.BitTorrent.Tracker.tcp  "rcvd ack"  ETV
vector 394  InetUnderlayNetwork.inet.applications.BitTorrent.Tracker.tcp  "advertised window"  ETV
vector 392  InetUnderlayNetwork.inet.applications.BitTorrent.Tracker.tcp  "send window"  ETV
vector 406  InetUnderlayNetwork.inet.applications.BitTorrent.Tracker.tcp  tcpRcvQueueBytes  ETV
vector 393  InetUnderlayNetwork.inet.applications.BitTorrent.Tracker.tcp  "receive window"  ETV
vector 396  InetUnderlayNetwork.inet.applications.BitTorrent.Tracker.tcp  "sent ack"  ETV
vector 539  InetUnderlayNetwork.overlayTerminal[2].tcp  "rcvd seq"  ETV
vector 540  InetUnderlayNetwork.overlayTerminal[2].tcp  "rcvd ack"  ETV
vector 534  InetUnderlayNetwork.overlayTerminal[2].tcp  "send window"  ETV
vector 537  InetUnderlayNetwork.overlayTerminal[2].tcp  "sent seq"  ETV
vector 541  InetUnderlayNetwork.overlayTerminal[2].tcp  "unacked bytes"  ETV
vector 509  InetUnderlayNetwork.overlayTerminal[2].ppp[0].queue  "queue length"  ETV
vector 399  InetUnderlayNetwork.inet.applications.BitTorrent.Tracker.tcp  "unacked bytes"  ETV
vector 400  InetUnderlayNetwork.inet.applications.BitTorrent.Tracker.tcp  "rcvd dupAcks"  ETV
vector 395  InetUnderlayNetwork.inet.applications.BitTorrent.Tracker.tcp  "sent seq"  ETV
vector 507  InetUnderlayNetwork.accessRouter[3].ppp[1].queue  "queue length"  ETV
vector 552  InetUnderlayNetwork.overlayTerminal[2].tcp  "measured RTT"  ETV
vector 553  InetUnderlayNetwork.overlayTerminal[2].tcp  "smoothed RTT"  ETV
vector 554  InetUnderlayNetwork.overlayTerminal[2].tcp  RTTVAR  ETV
vector 555  InetUnderlayNetwork.overlayTerminal[2].tcp  RTO  ETV
vector 550  InetUnderlayNetwork.overlayTerminal[2].tcp  cwnd  ETV
vector 542  InetUnderlayNetwork.overlayTerminal[2].tcp  "rcvd dupAcks"  ETV
vector 594  InetUnderlayNetwork.overlayTerminal[2].tcp  tcpRcvQueueBytes  ETV
vector 582  InetUnderlayNetwork.overlayTerminal[2].tcp  "advertised window"  ETV
vector 581  InetUnderlayNetwork.overlayTerminal[2].tcp  "receive window"  ETV
vector 584  InetUnderlayNetwork.overlayTerminal[2].tcp  "sent ack"  ETV
vector 617  InetUnderlayNetwork.overlayTerminal[2].tcp  tcpRcvQueueBytes  ETV
vector 605  InetUnderlayNetwork.overlayTerminal[2].tcp  "advertised window"  ETV
vector 604  InetUnderlayNetwork.overlayTerminal[2].tcp  "receive window"  ETV
vector 607  InetUnderlayNetwork.overlayTerminal[2].tcp  "sent ack"  ETV
vector 640  InetUnderlayNetwork.overlayTerminal[2].tcp  tcpRcvQueueBytes  ETV
vector 628  InetUnderlayNetwork.overlayTerminal[2].tcp  "advertised window"  ETV
vector 627  InetUnderlayNetwork.overlayTerminal[2].tcp  "receive window"  ETV
vector 630  InetUnderlayNetwork.overlayTerminal[2].tcp  "sent ack"  ETV
vector 410  InetUnderlayNetwork.inet.applications.BitTorrent.Tracker.tcp  "measured RTT"  ETV
vector 411  InetUnderlayNetwork.inet.applications.BitTorrent.Tracker.tcp  "smoothed RTT"  ETV
vector 412  InetUnderlayNetwork.inet.applications.BitTorrent.Tracker.tcp  RTTVAR  ETV
vector 413  InetUnderlayNetwork.inet.applications.BitTorrent.Tracker.tcp  RTO  ETV
vector 408  InetUnderlayNetwork.inet.applications.BitTorrent.Tracker.tcp  cwnd  ETV
vector 351  InetUnderlayNetwork.overlayTerminal[1].tcp  "rcvd seq"  ETV
vector 352  InetUnderlayNetwork.overlayTerminal[1].tcp  "rcvd ack"  ETV
vector 348  InetUnderlayNetwork.overlayTerminal[1].tcp  "advertised window"  ETV
vector 346  InetUnderlayNetwork.overlayTerminal[1].tcp  "send window"  ETV
vector 360  InetUnderlayNetwork.overlayTerminal[1].tcp  tcpRcvQueueBytes  ETV
vector 347  InetUnderlayNetwork.overlayTerminal[1].tcp  "receive window"  ETV
vector 350  InetUnderlayNetwork.overlayTerminal[1].tcp  "sent ack"  ETV
vector 466  InetUnderlayNetwork.inet.applications.BitTorrent.BTHostSeeder.tcp  "rcvd seq"  ETV
vector 467  InetUnderlayNetwork.inet.applications.BitTorrent.BTHostSeeder.tcp  "rcvd ack"  ETV
vector 463  InetUnderlayNetwork.inet.applications.BitTorrent.BTHostSeeder.tcp  "advertised window"  ETV
vector 461  InetUnderlayNetwork.inet.applications.BitTorrent.BTHostSeeder.tcp  "send window"  ETV
vector 475  InetUnderlayNetwork.inet.applications.BitTorrent.BTHostSeeder.tcp  tcpRcvQueueBytes  ETV
vector 462  InetUnderlayNetwork.inet.applications.BitTorrent.BTHostSeeder.tcp  "receive window"  ETV
vector 465  InetUnderlayNetwork.inet.applications.BitTorrent.BTHostSeeder.tcp  "sent ack"  ETV
vector 489  InetUnderlayNetwork.overlayTerminal[0].tcp  "rcvd seq"  ETV
vector 490  InetUnderlayNetwork.overlayTerminal[0].tcp  "rcvd ack"  ETV
vector 486  InetUnderlayNetwork.overlayTerminal[0].tcp  "advertised window"  ETV
vector 484  InetUnderlayNetwork.overlayTerminal[0].tcp  "send window"  ETV
vector 498  InetUnderlayNetwork.overlayTerminal[0].tcp  tcpRcvQueueBytes  ETV
vector 485  InetUnderlayNetwork.overlayTerminal[0].tcp  "receive window"  ETV
vector 488  InetUnderlayNetwork.overlayTerminal[0].tcp  "sent ack"  ETV
vector 585  InetUnderlayNetwork.overlayTerminal[2].tcp  "rcvd seq"  ETV
vector 586  InetUnderlayNetwork.overlayTerminal[2].tcp  "rcvd ack"  ETV
vector 580  InetUnderlayNetwork.overlayTerminal[2].tcp  "send window"  ETV
vector 583  InetUnderlayNetwork.overlayTerminal[2].tcp  "sent seq"  ETV
vector 587  InetUnderlayNetwork.overlayTerminal[2].tcp  "unacked bytes"  ETV
vector 631  InetUnderlayNetwork.overlayTerminal[2].tcp  "rcvd seq"  ETV
vector 632  InetUnderlayNetwork.overlayTerminal[2].tcp  "rcvd ack"  ETV
vector 626  InetUnderlayNetwork.overlayTerminal[2].tcp  "send window"  ETV
vector 629  InetUnderlayNetwork.overlayTerminal[2].tcp  "sent seq"  ETV
vector 633  InetUnderlayNetwork.overlayTerminal[2].tcp  "unacked bytes"  ETV
vector 608  InetUnderlayNetwork.overlayTerminal[2].tcp  "rcvd seq"  ETV
vector 609  InetUnderlayNetwork.overlayTerminal[2].tcp  "rcvd ack"  ETV
vector 603  InetUnderlayNetwork.overlayTerminal[2].tcp  "send window"  ETV
vector 606  InetUnderlayNetwork.overlayTerminal[2].tcp  "sent seq"  ETV
vector 610  InetUnderlayNetwork.overlayTerminal[2].tcp  "unacked bytes"  ETV
408	27532 58 2939 3280 440.209393375 440.296972797 2 1072 1608 2680 3734848
410	27590 36 2939 2939 440.209393375 440.209393375 1 0.090131422 0.090131422 0.090131422 0.0081236732317421
411	27626 36 2939 2939 440.209393375 440.209393375 1 0.011266427 0.011266427 0.011266427 0.00012693237734633
412	27662 36 2939 2939 440.209393375 440.209393375 1 0.667516428 0.667516428 0.667516428 0.44557818164988
413	27698 36 2939 2939 440.209393375 440.209393375 1 2.681332139 2.681332139 2.681332139 7.1895420396343
392	27734 116 2611 3280 440.031336733 440.296972797 4 7504 7504 30016 225240064
393	27850 145 2611 2945 440.031336733 440.209769375 5 7504 7504 37520 281550080
394	27995 204 2611 2945 440.031336733 440.209769375 6 110004476 110004555 660027170 7.2605977523043e+016
395	28199 34 2714 2714 440.119261953 440.119261953 1 110007835 110007835 110007835 1.2101723761387e+016
396	28233 170 2611 2945 440.031336733 440.209769375 5 109996972 109997051 549985174 6.0496738323967e+016
397	28403 204 2611 3280 440.031336733 440.296972797 6 109996971 109997051 659982066 7.2596054573614e+016
398	28607 196 2611 3280 440.031336733 440.296972797 6 0 110008202 550040274 6.050886060456e+016
399	28803 132 2707 3280 440.118199364 440.296972797 5 0 366 367 133957
400	28935 104 2711 3280 440.119261953 440.296972797 4 0 0 0 0
406	29039 156 2611 2945 440.031336733 440.209769375 6 0 0 0 0
vector 353  InetUnderlayNetwork.overlayTerminal[1].tcp  "unacked bytes"  ETV
vector 354  InetUnderlayNetwork.overlayTerminal[1].tcp  "rcvd dupAcks"  ETV
vector 349  InetUnderlayNetwork.overlayTerminal[1].tcp  "sent seq"  ETV
vector 468  InetUnderlayNetwork.inet.applications.BitTorrent.BTHostSeeder.tcp  "unacked bytes"  ETV
vector 469  InetUnderlayNetwork.inet.applications.BitTorrent.BTHostSeeder.tcp  "rcvd dupAcks"  ETV
vector 464  InetUnderlayNetwork.inet.applications.BitTorrent.BTHostSeeder.tcp  "sent seq"  ETV
vector 598  InetUnderlayNetwork.overlayTerminal[2].tcp  "measured RTT"  ETV
vector 599  InetUnderlayNetwork.overlayTerminal[2].tcp  "smoothed RTT"  ETV
vector 600  InetUnderlayNetwork.overlayTerminal[2].tcp  RTTVAR  ETV
vector 601  InetUnderlayNetwork.overlayTerminal[2].tcp  RTO  ETV
vector 596  InetUnderlayNetwork.overlayTerminal[2].tcp  cwnd  ETV
vector 588  InetUnderlayNetwork.overlayTerminal[2].tcp  "rcvd dupAcks"  ETV
vector 644  InetUnderlayNetwork.overlayTerminal[2].tcp  "measured RTT"  ETV
vector 645  InetUnderlayNetwork.overlayTerminal[2].tcp  "smoothed RTT"  ETV
vector 646  InetUnderlayNetwork.overlayTerminal[2].tcp  RTTVAR  ETV
vector 647  InetUnderlayNetwork.overlayTerminal[2].tcp  RTO  ETV
vector 642  InetUnderlayNetwork.overlayTerminal[2].tcp  cwnd  ETV
vector 634  InetUnderlayNetwork.overlayTerminal[2].tcp  "rcvd dupAcks"  ETV
vector 491  InetUnderlayNetwork.overlayTerminal[0].tcp  "unacked bytes"  ETV
vector 492  InetUnderlayNetwork.overlayTerminal[0].tcp  "rcvd dupAcks"  ETV
vector 487  InetUnderlayNetwork.overlayTerminal[0].tcp  "sent seq"  ETV
vector 364  InetUnderlayNetwork.overlayTerminal[1].tcp  "measured RTT"  ETV
vector 365  InetUnderlayNetwork.overlayTerminal[1].tcp  "smoothed RTT"  ETV
vector 366  InetUnderlayNetwork.overlayTerminal[1].tcp  RTTVAR  ETV
vector 367  InetUnderlayNetwork.overlayTerminal[1].tcp  RTO  ETV
vector 362  InetUnderlayNetwork.overlayTerminal[1].tcp  cwnd  ETV
vector 479  InetUnderlayNetwork.inet.applications.BitTorrent.BTHostSeeder.tcp  "measured RTT"  ETV